 Gaussian 16, Revision A.03,
 Gaussian 16:  ES64L-G16RevA.03 25-Dec-2016

 ----------------------------------------------------------------------
 # m06l/6-311+g(d,p) scf=(xqc,maxconventionalcycles=400) scrf=(smd,solv
 ent=1,4-dioxane) temperature=443.15
 ----------------------------------------------------------------------

 -------------------
 Title Card Required
 -------------------
 Symbolic Z-matrix:
 Charge =  0 Multiplicity = 1

                         Standard orientation:
 ---------------------------------------------------------------------
 Center     Atomic      Atomic             Coordinates (Angstroms)
 Number     Number       Type             X           Y           Z
 ---------------------------------------------------------------------
      1          8           0        3.657858   -1.379908    0.112542
      2          6           0        2.512602   -1.017390   -0.349252
      3          1           0        1.882008   -1.754663   -0.856542
      4          8           0        2.534238    1.114456    0.640455
      5          6           0        1.894230    0.229678   -0.090626
      6          1           0        2.589326   -0.090613   -1.273700
      7          6           0        0.487603    0.573292   -0.523268
      8          1           0        0.239819    0.040866   -1.449791
      9          6           0       -0.486825    0.129082    0.589596
     10          1           0       -0.152987    0.595155    1.529615
     11          6           0       -1.923516    0.602137    0.322390
     12          1           0       -1.912247    1.699587    0.268076
     13          6           0       -2.523035    0.065366   -0.962486
     14          1           0       -3.528929    0.480765   -1.092126
     15          1           0       -1.935134    0.370712   -1.831742
     16          8           0       -2.560336   -1.361624   -0.971768
     17          1           0       -3.226406   -1.622732   -0.324576
     18          8           0       -2.793871    0.147565    1.349237
     19          1           0       -2.388532    0.312733    2.206654
     20          8           0       -0.369520   -1.261361    0.762054
     21          1           0       -1.016819   -1.668735    0.162840
     22          8           0        0.396561    1.982440   -0.668899
     23          1           0        0.665179    2.232239   -1.560788
     24          1           0        2.098935    1.979145    0.514983
 ---------------------------------------------------------------------

 SCF Done:  E(RM06L) =  -687.228040821     A.U. after   18 cycles

 The electronic state is 1-A.
 Alpha  occ. eigenvalues --  -19.02732 -19.01659 -18.99511 -18.98740 -18.97531
 Alpha  occ. eigenvalues --  -18.89814 -10.15553 -10.14539 -10.12683 -10.12115
 Alpha  occ. eigenvalues --  -10.11994 -10.11664  -1.08659  -1.04491  -1.03674
 Alpha  occ. eigenvalues --   -1.01253  -1.00634  -0.93909  -0.78407  -0.74946
 Alpha  occ. eigenvalues --   -0.69904  -0.63411  -0.58196  -0.57688  -0.53704
 Alpha  occ. eigenvalues --   -0.52701  -0.50173  -0.49217  -0.47308  -0.45414
 Alpha  occ. eigenvalues --   -0.44276  -0.43101  -0.41094  -0.40286  -0.39274
 Alpha  occ. eigenvalues --   -0.36675  -0.36129  -0.34584  -0.34063  -0.33594
 Alpha  occ. eigenvalues --   -0.33116  -0.31951  -0.30141  -0.26433  -0.25939
 Alpha  occ. eigenvalues --   -0.25125  -0.20889  -0.18276
 Alpha virt. eigenvalues --   -0.03355  -0.02518  -0.00866   0.00527   0.01133
 Alpha virt. eigenvalues --    0.02559   0.03113   0.03484   0.04312   0.05112
 Alpha virt. eigenvalues --    0.05811   0.06254   0.06792   0.07373   0.09045

 Mulliken charges:
               1
     1  O   -0.464190
     2  C    0.109400
     3  H    0.137847
     4  O   -0.185437
     5  C   -0.073100
     6  H    0.146270
     7  C   -0.294270
     8  H    0.178452
     9  C   -0.075785
    10  H    0.153367
    11  C   -0.127846
    12  H    0.151938
    13  C   -0.160088
    14  H    0.155942
    15  H    0.146471
    16  O   -0.356619
    17  H    0.299082
    18  O   -0.350518
    19  H    0.287924
    20  O   -0.262939
    21  H    0.294906
    22  O   -0.322710
    23  H    0.311473
    24  H    0.300432
 Sum of Mulliken charges =  -0.00000

 Dipole moment (field-independent basis, Debye):
    X=             -6.7137    Y=              5.7504    Z=             -3.1236  Tot=              9.3754
 Quadrupole moment (field-independent basis, Debye-Ang):
   XX=            -98.7655   YY=            -72.2738   ZZ=            -65.1027
   XY=             13.8651   XZ=             -7.8782   YZ=             -1.2682

 Normal termination of Gaussian 16 at Sun Sep  9 22:45:14 2018.
