 Gaussian 16, Revision A.03,
 Gaussian 16:  ES64L-G16RevA.03 25-Dec-2016

 ----------------------------------------------------------------------
 # m06l/6-311+g(d,p) scf=(xqc,maxconventionalcycles=400) scrf=(smd,solv
 ent=1,4-dioxane) temperature=443.15
 ----------------------------------------------------------------------

 -------------------
 Title Card Required
 -------------------
 Symbolic Z-matrix:
 Charge =  0 Multiplicity = 1

                         Standard orientation:
 ---------------------------------------------------------------------
 Center     Atomic      Atomic             Coordinates (Angstroms)
 Number     Number       Type             X           Y           Z
 ---------------------------------------------------------------------
      1         17           0       -0.495453    1.975828   -0.119557
      2         17           0        1.985341   -0.560218   -0.116782
      3         17           0       -1.477469   -1.415359   -0.120759
      4         13           0       -0.016240   -0.000329    0.466974
 ---------------------------------------------------------------------

 SCF Done:  E(RM06L) =  -1623.23859733     A.U. after   16 cycles

 The electronic state is 1-A.
 Alpha  occ. eigenvalues -- -101.19383-101.19325-101.18998 -55.87459  -9.41344
 Alpha  occ. eigenvalues --   -9.41290  -9.40911  -7.12041  -7.11985  -7.11618
 Alpha  occ. eigenvalues --   -7.11494  -7.11440  -7.11424  -7.11368  -7.11061
 Alpha  occ. eigenvalues --   -7.10992  -4.20448  -2.71432  -2.70950  -2.70945
 Alpha  occ. eigenvalues --   -0.80490  -0.79050  -0.78584  -0.43567  -0.37409
 Alpha  occ. eigenvalues --   -0.37133  -0.33630  -0.32219  -0.32071  -0.30975
 Alpha  occ. eigenvalues --   -0.30740  -0.29593
 Alpha virt. eigenvalues --   -0.14079   0.00089   0.00398   0.01050   0.01119
 Alpha virt. eigenvalues --    0.03408   0.04331   0.04524   0.07955   0.08013
 Alpha virt. eigenvalues --    0.08039   0.08861   0.08904   0.10300   0.12519

 Mulliken charges:
               1
     1  Cl  -0.154271
     2  Cl  -0.178974
     3  Cl  -0.152097
     4  Al   0.485343
 Sum of Mulliken charges =  -0.00000

 Dipole moment (field-independent basis, Debye):
    X=             -0.2587    Y=              0.0359    Z=              2.9931  Tot=              3.0045
 Quadrupole moment (field-independent basis, Debye-Ang):
   XX=            -55.1273   YY=            -54.6616   ZZ=            -44.4445
   XY=              0.1256   XZ=             -0.0421   YZ=             -0.0141

 Normal termination of Gaussian 16 at Sun Sep  9 22:44:19 2018.
