 Gaussian 16, Revision A.03,
 Gaussian 16:  ES64L-G16RevA.03 25-Dec-2016

 ----------------------------------------------------------------------
 # m06l/6-311+g(d,p) scf=(xqc,maxconventionalcycles=400) scrf=(smd,solv
 ent=1,4-dioxane) temperature=443.15
 ----------------------------------------------------------------------

 -------------------
 Title Card Required
 -------------------
 Symbolic Z-matrix:
 Charge =  0 Multiplicity = 4

                         Standard orientation:
 ---------------------------------------------------------------------
 Center     Atomic      Atomic             Coordinates (Angstroms)
 Number     Number       Type             X           Y           Z
 ---------------------------------------------------------------------
      1         27           0       -0.000000    0.503814   -0.000000
      2         17           0        2.032462   -0.495645    0.000000
      3         17           0       -2.032462   -0.304531    0.000000
 ---------------------------------------------------------------------

 SCF Done:  E(UM06L) =  -2303.18131657     A.U. after   23 cycles

 The electronic state is 4-A".
 Alpha  occ. eigenvalues -- -277.06438-101.17441-101.16605 -32.86483 -28.44486
 Alpha  occ. eigenvalues --  -28.43840 -28.42679  -9.39265  -9.38392  -7.09878
 Alpha  occ. eigenvalues --   -7.09520  -7.09482  -7.09025  -7.08632  -7.08598
 Alpha  occ. eigenvalues --   -3.88478  -2.54953  -2.53945  -2.51291  -0.76865
 Alpha  occ. eigenvalues --   -0.75639  -0.39924  -0.39442  -0.37825  -0.37112
 Alpha  occ. eigenvalues --   -0.34208  -0.31357  -0.31044  -0.29122  -0.28342
 Alpha  occ. eigenvalues --   -0.27637  -0.27552
 Alpha virt. eigenvalues --   -0.08343   0.00148   0.01179   0.03353   0.04503
 Alpha virt. eigenvalues --    0.09259   0.09509   0.09741   0.10264   0.10356
 Alpha virt. eigenvalues --    0.12470   0.13731   0.16908   0.17316   0.17886

  Beta  occ. eigenvalues -- -277.06456-101.17311-101.16490 -32.79135 -28.38733
  Beta  occ. eigenvalues --  -28.38393 -28.38103  -9.39167  -9.38306  -7.09719
  Beta  occ. eigenvalues --   -7.09321  -7.09298  -7.08872  -7.08462  -7.08441
  Beta  occ. eigenvalues --   -3.70106  -2.36570  -2.36476  -2.35464  -0.76104
  Beta  occ. eigenvalues --   -0.74961  -0.35908  -0.33068  -0.30017  -0.29840
  Beta  occ. eigenvalues --   -0.28874  -0.28693  -0.25409  -0.23847
  Beta virt. eigenvalues --   -0.19421  -0.17930  -0.16645  -0.06257   0.00001
  Beta virt. eigenvalues --    0.01228   0.03466   0.04424   0.09133   0.09539
  Beta virt. eigenvalues --    0.09886   0.10529   0.10602   0.12449   0.14226

 Mulliken charges and spin densities:
               1          2
     1  Co   0.551073   2.696601
     2  Cl  -0.296062   0.142659
     3  Cl  -0.255011   0.160740
 Sum of Mulliken charges =  -0.00000   3.00000

 Dipole moment (field-independent basis, Debye):
    X=             -0.2841    Y=              3.9582    Z=             -0.0000  Tot=              3.9683
 Quadrupole moment (field-independent basis, Debye-Ang):
   XX=            -50.9384   YY=            -36.5683   ZZ=            -39.4392
   XY=              0.8379   XZ=              0.0000   YZ=             -0.0000

 Normal termination of Gaussian 16 at Sun Sep  9 22:49:28 2018.
