 Gaussian 16, Revision A.03,
 Gaussian 16:  ES64L-G16RevA.03 25-Dec-2016

 ----------------------------------------------------------------------
 # m06l/6-311+g(d,p) scf=(xqc,maxconventionalcycles=400) scrf=(smd,solv
 ent=1,4-dioxane) temperature=443.15
 ----------------------------------------------------------------------

 -------------------
 Title Card Required
 -------------------
 Symbolic Z-matrix:
 Charge =  0 Multiplicity = 2

                         Standard orientation:
 ---------------------------------------------------------------------
 Center     Atomic      Atomic             Coordinates (Angstroms)
 Number     Number       Type             X           Y           Z
 ---------------------------------------------------------------------
      1         29           0       -0.000000    0.623960    0.000000
      2         17           0        1.857472   -0.625873   -0.000000
      3         17           0       -1.857472   -0.438530   -0.000000
 ---------------------------------------------------------------------

 SCF Done:  E(UM06L) =  -2560.87401932     A.U. after   19 cycles

 The electronic state is 2-A'.
 Alpha  occ. eigenvalues -- -322.51734-101.17745-101.17167 -38.82354 -33.96197
 Alpha  occ. eigenvalues --  -33.96045 -33.94148  -9.39537  -9.38903  -7.10396
 Alpha  occ. eigenvalues --   -7.09796  -7.09761  -7.09596  -7.09107  -7.08968
 Alpha  occ. eigenvalues --   -4.42177  -2.88929  -2.88629  -2.84860  -0.77115
 Alpha  occ. eigenvalues --   -0.76015  -0.39187  -0.37739  -0.34934  -0.34179
 Alpha  occ. eigenvalues --   -0.33166  -0.30978  -0.30291  -0.28688  -0.28105
 Alpha  occ. eigenvalues --   -0.27674  -0.27133
 Alpha virt. eigenvalues --   -0.08232   0.00869   0.01060   0.04634   0.05032
 Alpha virt. eigenvalues --    0.09567   0.09581   0.09776   0.10650   0.10793
 Alpha virt. eigenvalues --    0.12476   0.12935   0.15311   0.17680   0.18855

  Beta  occ. eigenvalues -- -322.51726-101.17564-101.16980 -38.80631 -33.94545
  Beta  occ. eigenvalues --  -33.94418 -33.93700  -9.39418  -9.38783  -7.10021
  Beta  occ. eigenvalues --   -7.09564  -7.09466  -7.09397  -7.08923  -7.08836
  Beta  occ. eigenvalues --   -4.38238  -2.84021  -2.83911  -2.83507  -0.75961
  Beta  occ. eigenvalues --   -0.74778  -0.36875  -0.34598  -0.33553  -0.32783
  Beta  occ. eigenvalues --   -0.31686  -0.28950  -0.28593  -0.27784  -0.27003
  Beta  occ. eigenvalues --   -0.26133
  Beta virt. eigenvalues --   -0.23667  -0.07218   0.00794   0.00981   0.04455
  Beta virt. eigenvalues --    0.04876   0.09186   0.09352   0.09575   0.10517
  Beta virt. eigenvalues --    0.10557   0.12693   0.13105   0.15210   0.17576

 Mulliken charges and spin densities:
               1          2
     1  Cu   0.371787   0.507743
     2  Cl  -0.214313   0.250263
     3  Cl  -0.157474   0.241993
 Sum of Mulliken charges =  -0.00000   1.00000

 Dipole moment (field-independent basis, Debye):
    X=             -0.1456    Y=              4.5596    Z=              0.0000  Tot=              4.5619
 Quadrupole moment (field-independent basis, Debye-Ang):
   XX=            -46.5943   YY=            -35.1675   ZZ=            -38.5908
   XY=              0.7482   XZ=              0.0000   YZ=             -0.0000

 Normal termination of Gaussian 16 at Sun Sep  9 22:52:54 2018.
