 Gaussian 16, Revision A.03,
 Gaussian 16:  ES64L-G16RevA.03 25-Dec-2016

 ----------------------------------------------------------------------
 # m06l/6-311+g(d,p) scf=(xqc,maxconventionalcycles=400) scrf=(smd,solv
 ent=1,4-dioxane) temperature=443.15
 ----------------------------------------------------------------------

 -------------------
 Title Card Required
 -------------------
 Symbolic Z-matrix:
 Charge =  0 Multiplicity = 5

                         Standard orientation:
 ---------------------------------------------------------------------
 Center     Atomic      Atomic             Coordinates (Angstroms)
 Number     Number       Type             X           Y           Z
 ---------------------------------------------------------------------
      1         26           0       -0.000000    0.495958    0.000000
      2         17           0        2.055634   -0.478312   -0.000000
      3         17           0       -2.055634   -0.280212    0.000000
 ---------------------------------------------------------------------

 SCF Done:  E(UM06L) =  -2184.16413047     A.U. after   19 cycles

 The electronic state is 5-A'.
 Alpha  occ. eigenvalues -- -255.59822-101.16469-101.15707 -30.02016 -25.82405
 Alpha  occ. eigenvalues --  -25.80400 -25.79831  -9.38364  -9.37552  -7.08926
 Alpha  occ. eigenvalues --   -7.08601  -7.08598  -7.08122  -7.07786  -7.07782
 Alpha  occ. eigenvalues --   -3.58822  -2.36334  -2.32315  -2.30962  -0.76195
 Alpha  occ. eigenvalues --   -0.74987  -0.39005  -0.37624  -0.36036  -0.33568
 Alpha  occ. eigenvalues --   -0.32566  -0.30399  -0.29387  -0.28543  -0.27638
 Alpha  occ. eigenvalues --   -0.26797  -0.26380
 Alpha virt. eigenvalues --   -0.07081   0.00416   0.00938   0.02975   0.04435
 Alpha virt. eigenvalues --    0.09564   0.09800   0.10094   0.10460   0.10684
 Alpha virt. eigenvalues --    0.13064   0.13573   0.15995   0.16106   0.17682

  Beta  occ. eigenvalues -- -255.59847-101.16373-101.15623 -29.92829 -25.74799
  Beta  occ. eigenvalues --  -25.74134 -25.73965  -9.38292  -9.37488  -7.08839
  Beta  occ. eigenvalues --   -7.08447  -7.08442  -7.08044  -7.07651  -7.07645
  Beta  occ. eigenvalues --   -3.36731  -2.13658  -2.11385  -2.11047  -0.75573
  Beta  occ. eigenvalues --   -0.74469  -0.34619  -0.32033  -0.29268  -0.29236
  Beta  occ. eigenvalues --   -0.28183  -0.28159  -0.19785
  Beta virt. eigenvalues --   -0.18026  -0.14578  -0.14525  -0.13176  -0.07770
  Beta virt. eigenvalues --   -0.01175   0.00677   0.04209   0.04339   0.09554
  Beta virt. eigenvalues --    0.09687   0.09898   0.10606   0.10815   0.13115

 Mulliken charges and spin densities:
               1          2
     1  Fe   0.529287   3.737741
     2  Cl  -0.288844   0.120538
     3  Cl  -0.240444   0.141720
 Sum of Mulliken charges =  -0.00000   4.00000

 Dipole moment (field-independent basis, Debye):
    X=             -0.2869    Y=              4.2080    Z=              0.0000  Tot=              4.2178
 Quadrupole moment (field-independent basis, Debye-Ang):
   XX=            -53.5449   YY=            -36.6228   ZZ=            -39.4076
   XY=              0.9343   XZ=              0.0000   YZ=             -0.0000

 Normal termination of Gaussian 16 at Sun Sep  9 22:45:59 2018.
