 Gaussian 16, Revision A.03,
 Gaussian 16:  ES64L-G16RevA.03 25-Dec-2016

 ----------------------------------------------------------------------
 # m06l/6-311+g(d,p) scf=(xqc,maxconventionalcycles=400) scrf=(smd,solv
 ent=1,4-dioxane) temperature=443.15
 ----------------------------------------------------------------------

 -------------------
 Title Card Required
 -------------------
 Symbolic Z-matrix:
 Charge =  0 Multiplicity = 1

                         Standard orientation:
 ---------------------------------------------------------------------
 Center     Atomic      Atomic             Coordinates (Angstroms)
 Number     Number       Type             X           Y           Z
 ---------------------------------------------------------------------
      1          8           0        3.729023   -1.240718    0.079957
      2          6           0        2.532805   -0.972712   -0.319836
      3          1           0        1.901024   -1.770300   -0.734707
      4          8           0        2.463947    1.187322    0.614474
      5          6           0        1.838591    0.233721   -0.034273
      6          1           0        2.517383   -0.135566   -1.276375
      7          6           0        0.421138    0.507610   -0.470592
      8          1           0        0.177060   -0.106902   -1.346629
      9          6           0       -0.549467    0.161176    0.669887
     10          1           0       -0.239306    0.695580    1.575868
     11          6           0       -1.999436    0.564226    0.361936
     12          1           0       -2.063775    1.656455    0.350916
     13          6           0       -2.490032    0.071865   -0.987065
     14          1           0       -3.569859    0.242125   -1.052514
     15          1           0       -2.009109    0.640834   -1.796202
     16          8           0       -2.183593   -1.321366   -1.103398
     17          1           0       -2.671683   -1.696841   -1.840921
     18          8           0       -2.825777    0.121490    1.420973
     19          1           0       -2.527326   -0.766316    1.656906
     20          8           0       -0.447740   -1.215623    0.983525
     21          1           0       -0.865484   -1.696555    0.251883
     22          8           0        0.293654    1.899007   -0.738259
     23          1           0        0.616713    2.081067   -1.629274
     24          1           0        1.976668    2.020206    0.462529
 ---------------------------------------------------------------------

 SCF Done:  E(RM06L) =  -687.226824761     A.U. after   18 cycles

 The electronic state is 1-A.
 Alpha  occ. eigenvalues --  -19.03423 -19.01780 -19.00160 -18.98399 -18.97436
 Alpha  occ. eigenvalues --  -18.89440 -10.16033 -10.14665 -10.12643 -10.12020
 Alpha  occ. eigenvalues --  -10.11737 -10.11676  -1.09201  -1.04631  -1.03700
 Alpha  occ. eigenvalues --   -1.01798  -1.00035  -0.93690  -0.78501  -0.74888
 Alpha  occ. eigenvalues --   -0.69897  -0.63502  -0.58262  -0.57538  -0.53982
 Alpha  occ. eigenvalues --   -0.53022  -0.51332  -0.48114  -0.47806  -0.44748
 Alpha  occ. eigenvalues --   -0.44407  -0.42897  -0.41729  -0.41098  -0.38285
 Alpha  occ. eigenvalues --   -0.36753  -0.36407  -0.35992  -0.34500  -0.34223
 Alpha  occ. eigenvalues --   -0.31935  -0.30294  -0.30065  -0.27448  -0.26675
 Alpha  occ. eigenvalues --   -0.24808  -0.20337  -0.18223
 Alpha virt. eigenvalues --   -0.04627  -0.02666  -0.01129   0.00802   0.01223
 Alpha virt. eigenvalues --    0.02553   0.03237   0.03873   0.04629   0.04914
 Alpha virt. eigenvalues --    0.05713   0.06304   0.06621   0.07603   0.09081

 Mulliken charges:
               1
     1  O   -0.484047
     2  C    0.126216
     3  H    0.128588
     4  O   -0.167115
     5  C   -0.039703
     6  H    0.152417
     7  C   -0.428785
     8  H    0.187164
     9  C    0.071443
    10  H    0.173589
    11  C   -0.225371
    12  H    0.164120
    13  C   -0.137238
    14  H    0.167776
    15  H    0.130792
    16  O   -0.431366
    17  H    0.315520
    18  O   -0.278729
    19  H    0.264489
    20  O   -0.298711
    21  H    0.318316
    22  O   -0.320729
    23  H    0.309625
    24  H    0.301738
 Sum of Mulliken charges =  -0.00000

 Dipole moment (field-independent basis, Debye):
    X=             -6.8394    Y=              3.4052    Z=             -6.4447  Tot=              9.9953
 Quadrupole moment (field-independent basis, Debye-Ang):
   XX=           -102.1440   YY=            -68.8776   ZZ=            -65.5583
   XY=             17.1182   XZ=              2.8812   YZ=              0.7205

 Normal termination of Gaussian 16 at Sun Sep  9 22:46:54 2018.
