 Gaussian 16, Revision A.03,
 Gaussian 16:  ES64L-G16RevA.03 25-Dec-2016

 ----------------------------------------------------------------------
 # opt=(calcfc,maxcycles=200,maxstep=10) freq=noraman wb97xd/6-31+g(d)
 scrf=(solvent=ethanol,smd)
 ----------------------------------------------------------------------

 -------
 ethanol
 -------
 Symbolic Z-matrix:
 Charge =  0 Multiplicity = 1

 SCF Done:  E(RwB97XD) =  -155.004289648     A.U. after   11 cycles
 SCF Done:  E(RwB97XD) =  -155.005422439     A.U. after   11 cycles
 SCF Done:  E(RwB97XD) =  -155.005428085     A.U. after    9 cycles
 SCF Done:  E(RwB97XD) =  -155.005428167     A.U. after    8 cycles
 Optimization completed.
    -- Stationary point found.
 Normal termination of Gaussian 16 at Tue Feb  4 11:40:16 2020.

 ----------------------------------------------------------------------
 #N Geom=AllCheck Guess=TCheck SCRF=Check GenChk RwB97XD/6-31+G(d) Freq
 ----------------------------------------------------------------------

 Structure from the checkpoint file:  "ethanol.chk"
 -------
 ethanol
 -------
 Charge =  0 Multiplicity = 1

                         Standard orientation:
 ---------------------------------------------------------------------
 Center     Atomic      Atomic             Coordinates (Angstroms)
 Number     Number       Type             X           Y           Z
 ---------------------------------------------------------------------
      1          8           0        1.239181   -0.257799   -0.112544
      2          6           0        0.075840    0.558061    0.047338
      3          6           0       -1.211949   -0.243859   -0.021013
      4          1           0        0.136538    1.107584    0.996308
      5          1           0        0.119593    1.287395   -0.766581
      6          1           0       -2.076553    0.423512    0.077261
      7          1           0       -1.290751   -0.773817   -0.977145
      8          1           0       -1.258004   -0.980119    0.790835
      9          1           0        1.272377   -0.887375    0.621724
 ---------------------------------------------------------------------

 SCF Done:  E(RwB97XD) =  -155.005428167     A.U. after    1 cycles

 The electronic state is 1-A.
 Alpha  occ. eigenvalues --  -19.28000 -10.33726 -10.28055  -1.12260  -0.84037
 Alpha  occ. eigenvalues --   -0.71388  -0.58981  -0.53681  -0.51405  -0.46258
 Alpha  occ. eigenvalues --   -0.44895  -0.40857  -0.36237
 Alpha virt. eigenvalues --    0.08548   0.09867   0.10748   0.11861   0.14320
 Alpha virt. eigenvalues --    0.14796   0.15186   0.20445   0.22461   0.25291
 Alpha virt. eigenvalues --    0.26204   0.28995   0.30142   0.32204   0.33496

 Mulliken charges:
               1
     1  O   -0.745067
     2  C   -0.169326
     3  C   -0.699618
     4  H    0.205893
     5  H    0.216022
     6  H    0.227632
     7  H    0.226329
     8  H    0.222446
     9  H    0.515687
 Sum of Mulliken charges =  -0.00000

 Dipole moment (field-independent basis, Debye):
    X=             -1.7988    Y=             -0.1279    Z=              1.8137  Tot=              2.5577
 Quadrupole moment (field-independent basis, Debye-Ang):
   XX=            -23.1092   YY=            -18.4479   ZZ=            -19.0771
   XY=             -1.2232   XZ=              2.3995   YZ=             -1.7991

  Exact polarizability:  37.969  -1.046  38.119   0.044  -0.047  36.739
 Approx polarizability:  27.946  -1.184  28.601  -0.091  -0.484  28.013

                      1                      2                      3
                      A                      A                      A
 Frequencies --    260.0204               298.0709               433.0949
 Red. masses --      1.0542                 1.1437                 2.7800
 Frc consts  --      0.0420                 0.0599                 0.3072
 IR Inten    --     58.7125               190.0616                16.1911

                      4                      5                      6
                      A                      A                      A
 Frequencies --    818.6302               905.0832              1084.4025
 Red. masses --      1.0866                 2.2147                 1.4344
 Frc consts  --      0.4290                 1.0689                 0.9938
 IR Inten    --      7.2406                19.1604                51.0993

                      7                      8                      9
                      A                      A                      A
 Frequencies --   1089.5946              1146.4637              1294.7248
 Red. masses --      3.5875                 1.6718                 1.2775
 Frc consts  --      2.5094                 1.2946                 1.2618
 IR Inten    --    178.3640                 8.9291                18.2564

                     10                     11                     12
                      A                      A                      A
 Frequencies --   1390.4886              1418.8691              1444.2926
 Red. masses --      1.1863                 1.2049                 1.3212
 Frc consts  --      1.3514                 1.4292                 1.6237
 IR Inten    --      9.2657                12.0100                70.2517

                     13                     14                     15
                      A                      A                      A
 Frequencies --   1498.8158              1503.6718              1533.6938
 Red. masses --      1.0449                 1.0543                 1.0896
 Frc consts  --      1.3830                 1.4045                 1.5100
 IR Inten    --     12.9488                 3.7846                 3.2949

                     16                     17                     18
                      A                      A                      A
 Frequencies --   3055.6795              3059.6998              3125.7128
 Red. masses --      1.0514                 1.0515                 1.0997
 Frc consts  --      5.7841                 5.7998                 6.3301
 IR Inten    --     80.8831                28.1030                 2.2734

                     19                     20                     21
                      A                      A                      A
 Frequencies --   3140.5608              3146.3921              3812.7572
 Red. masses --      1.1016                 1.1039                 1.0668
 Frc consts  --      6.4016                 6.4391                 9.1368
 IR Inten    --     50.4912                95.6082                82.6787

 - Thermochemistry -
 -------------------
 Temperature   298.150 Kelvin.  Pressure   1.00000 Atm.
 Atom     1 has atomic number  8 and mass  15.99491

 Molecular mass:    46.04186 amu.
 Principal axes and moments of inertia in atomic units:
                           1         2         3
     Eigenvalues --    52.66096 196.85236 222.62652
           X            0.99974   0.01387   0.01795
           Y           -0.01284   0.99833  -0.05627
           Z           -0.01870   0.05603   0.99825
 This molecule is an asymmetric top.
 Rotational symmetry number  1.
 Rotational temperatures (Kelvin)      1.64475     0.43999     0.38905
 Rotational constants (GHZ):          34.27095     9.16799     8.10659
 Zero-point vibrational energy     212102.2 (Joules/Mol)
                                   50.69364 (Kcal/Mol)
 Warning -- explicit consideration of   3 degrees of freedom as
           vibrations may cause significant error
 Vibrational temperatures:    374.11   428.86   623.13  1177.83  1302.21
          (Kelvin)           1560.21  1567.68  1649.51  1862.82  2000.60
                             2041.44  2078.01  2156.46  2163.45  2206.64
                             4396.44  4402.23  4497.20  4518.57  4526.96
                             5485.71

 Zero-point correction=                           0.080785 (Hartree/Particle)
 Thermal correction to Energy=                    0.085037
 Thermal correction to Enthalpy=                  0.085982
 Thermal correction to Gibbs Free Energy=         0.055417
 Sum of electronic and zero-point Energies=           -154.924643
 Sum of electronic and thermal Energies=              -154.920391
 Sum of electronic and thermal Enthalpies=            -154.919447
 Sum of electronic and thermal Free Energies=         -154.950012

                     E (Thermal)             CV                S
                      KCal/Mol        Cal/Mol-Kelvin    Cal/Mol-Kelvin
 Total                   53.362             13.388             64.329
 Electronic               0.000              0.000              0.000
 Translational            0.889              2.981             37.406
 Rotational               0.889              2.981             22.361
 Vibrational             51.584              7.426              4.562
 Vibration     1          0.668              1.746              1.662
 Vibration     2          0.691              1.677              1.428
 Vibration     3          0.794              1.398              0.849

 Optimization completed.
    -- Stationary point found.
 Normal termination of Gaussian 16 at Tue Feb  4 11:40:29 2020.
