                         Program Version 4.0.1.2 - RELEASE -
|  1> # ethanol_new
|  2> # Memory per core
|  3> %maxcore 4000
|  4> # Number of processors
|  5> %pal nprocs 24 end
|  6> !CPCM DLPNO-CCSD(T) Extrapolate(2/3,cc)  RIJCOSX GRIDX5 TightSCF KDIIS
|  7> %cpcm
|  8> smd true
|  9> solvent "Ethanol"
| 10> end
| 11> %scf maxiter 500
| 12>     end
| 13> % mdci
| 14>    # Loose cut-off
| 15>    #  TCutPairs 1e-3
| 16>    #  TCutPNO 1e-6
| 17>    #  TCutMKN 1e-3
| 18>    # Normal cut-off
| 19>      TCutPairs 1e-4
| 20>      TCutPNO 3.33e-7
| 21>      TCutMKN 1e-3
| 22>    # Tight cut-off
| 23>    #TCutPairs 1e-5
| 24>    #TCutPNO 1e-7
| 25>    #TCutMKN 1e-4
| 26>    # Faster/less disk-IO for large jobs
| 27>    #LocalTrafo 3
| 28>    Density None
| 29> end
| 30> % output
| 31>    printlevel mini
| 32>    print[ P_SCFInfo ] 1
| 33>    print[ P_SCFIterInfo ] 1
| 34>    print[ P_OrbEn ] 0
| 35>    print[ P_Cartesian ] 0
| 36> end
| 37> % elprop
| 38>    Dipole False
| 39> end
| 40> * xyz 0 1
| 41> O  1.239181  -0.257799  -0.112544
| 42> C  0.07584  0.558061  0.047338
| 43> C  -1.211949  -0.243859  -0.021013
| 44> H  0.136538  1.107584  0.996308
| 45> H  0.119593  1.287395  -0.766581
| 46> H  -2.076553  0.423512  0.077261
| 47> H  -1.290751  -0.773817  -0.977145
| 48> H  -1.258004  -0.980119  0.790835
| 49> H  1.272377  -0.887375  0.621724
| 50> *
| 51>
| 52>                          ****END OF INPUT****
 Total Charge           Charge          ....    0
 Multiplicity           Mult            ....    1
 Number of Electrons    NEL             ....   26
E(0)                                       ...   -154.102264473
E(0)                                       ...   -154.102264473
E(CORR)(strong-pairs)                      ...     -0.517561276
E(CORR)(weak-pairs)                        ...     -0.000298809
E(CORR)(corrected)                         ...     -0.517860085
E(TOT)                                     ...   -154.620124558
 Multiplicity           Mult            ....    1
 Number of Electrons    NEL             ....   26
 Basis Dimension        Dim             ....  174
E(0)                                       ...   -154.152247270
E(CORR)(strong-pairs)                      ...     -0.629400085
E(CORR)(weak-pairs)                        ...     -0.000943895
E(CORR)(corrected)                         ...     -0.630343980
E(TOT)                                     ...   -154.782591250
E(CCSD(T))                                 ...   -154.803907495
FINAL SINGLE POINT ENERGY      -154.891369235763
                             ****ORCA TERMINATED NORMALLY****
TOTAL RUN TIME: 0 days 0 hours 1 minutes 8 seconds 592 msec
