 Gaussian 16, Revision A.03,
 Gaussian 16:  ES64L-G16RevA.03 25-Dec-2016

 ----------------------------------------------------------------------
 # m06l/6-311+g(d,p) scf=(xqc,maxconventionalcycles=400) scrf=(smd,solv
 ent=1,4-dioxane) temperature=443.15
 ----------------------------------------------------------------------

 -------------------
 Title Card Required
 -------------------
 Symbolic Z-matrix:
 Charge =  0 Multiplicity = 1

                         Standard orientation:
 ---------------------------------------------------------------------
 Center     Atomic      Atomic             Coordinates (Angstroms)
 Number     Number       Type             X           Y           Z
 ---------------------------------------------------------------------
      1          8           0       -3.812891   -1.129338   -0.079752
      2          6           0       -2.593247   -0.965241    0.327086
      3          1           0       -2.016593   -1.828936    0.682671
      4          8           0       -2.447208    1.154101   -0.622658
      5          6           0       -1.821618    0.196799    0.022921
      6          1           0       -2.537933   -0.202110    1.306356
      7          6           0       -0.413863    0.475160    0.467412
      8          1           0       -0.171434   -0.145414    1.339801
      9          6           0        0.562705    0.137734   -0.672929
     10          1           0        0.243217    0.658903   -1.583297
     11          6           0        2.004830    0.570873   -0.367748
     12          1           0        2.049621    1.664080   -0.368940
     13          6           0        2.502283    0.101507    0.986601
     14          1           0        3.579016    0.290151    1.050795
     15          1           0        2.011780    0.671474    1.789288
     16          8           0        2.217751   -1.295231    1.116621
     17          1           0        2.719677   -1.658460    1.850993
     18          8           0        2.838373    0.131733   -1.421953
     19          1           0        2.559344   -0.765043   -1.647172
     20          8           0        0.482934   -1.242850   -0.972380
     21          1           0        0.912056   -1.709722   -0.238044
     22          8           0       -0.299232    1.866130    0.740695
     23          1           0       -0.652703    2.046941    1.621013
     24          1           0       -1.980402    2.000785   -0.468112
 ---------------------------------------------------------------------

 SCF Done:  E(RM06L) =  -687.222643082     A.U. after   18 cycles

 The electronic state is 1-A.
 Alpha  occ. eigenvalues --  -19.03657 -19.01841 -19.00189 -18.98467 -18.97494
 Alpha  occ. eigenvalues --  -18.88837 -10.16137 -10.14768 -10.12753 -10.11784
 Alpha  occ. eigenvalues --  -10.11688 -10.11624  -1.09248  -1.04685  -1.03751
 Alpha  occ. eigenvalues --   -1.01850  -1.00110  -0.93000  -0.78300  -0.74711
 Alpha  occ. eigenvalues --   -0.69840  -0.63600  -0.58429  -0.57621  -0.54126
 Alpha  occ. eigenvalues --   -0.53125  -0.51331  -0.48101  -0.47755  -0.44709
 Alpha  occ. eigenvalues --   -0.44328  -0.42956  -0.41695  -0.41030  -0.38330
 Alpha  occ. eigenvalues --   -0.36545  -0.36328  -0.35996  -0.34842  -0.33933
 Alpha  occ. eigenvalues --   -0.31948  -0.30354  -0.30124  -0.27500  -0.26742
 Alpha  occ. eigenvalues --   -0.24849  -0.19577  -0.17821
 Alpha virt. eigenvalues --   -0.05775  -0.02676  -0.01168   0.00751   0.01329
 Alpha virt. eigenvalues --    0.02515   0.03402   0.03873   0.04652   0.04967
 Alpha virt. eigenvalues --    0.05707   0.06383   0.06585   0.07592   0.09334

 Mulliken charges:
               1
     1  O   -0.501265
     2  C    0.107523
     3  H    0.132463
     4  O   -0.149213
     5  C   -0.001817
     6  H    0.147723
     7  C   -0.435121
     8  H    0.186728
     9  C    0.059801
    10  H    0.174827
    11  C   -0.228914
    12  H    0.164493
    13  C   -0.135891
    14  H    0.167824
    15  H    0.132460
    16  O   -0.431883
    17  H    0.316120
    18  O   -0.278020
    19  H    0.264628
    20  O   -0.302145
    21  H    0.319573
    22  O   -0.322067
    23  H    0.309561
    24  H    0.302610
 Sum of Mulliken charges =  -0.00000

 Dipole moment (field-independent basis, Debye):
    X=              7.1598    Y=              3.2734    Z=              6.3891  Tot=             10.1389
 Quadrupole moment (field-independent basis, Debye-Ang):
   XX=           -103.9696   YY=            -68.1942   ZZ=            -65.5676
   XY=            -16.7161   XZ=              2.8909   YZ=             -0.7805

 Normal termination of Gaussian 16 at Sun Sep  9 22:50:22 2018.
