 Gaussian 16, Revision A.03,
 Gaussian 16:  ES64L-G16RevA.03 25-Dec-2016

 ----------------------------------------------------------------------
 # m06l/6-311+g(d,p) scf=(xqc,maxconventionalcycles=400) scrf=(smd,solv
 ent=1,4-dioxane) temperature=443.15
 ----------------------------------------------------------------------

 -------------------
 Title Card Required
 -------------------
 Symbolic Z-matrix:
 Charge =  0 Multiplicity = 1

                         Standard orientation:
 ---------------------------------------------------------------------
 Center     Atomic      Atomic             Coordinates (Angstroms)
 Number     Number       Type             X           Y           Z
 ---------------------------------------------------------------------
      1          8           0       -3.781976   -1.121510   -0.031718
      2          6           0       -2.557000   -0.967967    0.375185
      3          1           0       -2.007692   -1.832891    0.755825
      4          8           0       -2.513461    1.110862   -0.599589
      5          6           0       -1.820205    0.198625    0.060488
      6          1           0       -2.503247   -0.139970    1.333928
      7          6           0       -0.398593    0.543778    0.409475
      8          1           0       -0.125585    0.088489    1.368701
      9          6           0        0.542438   -0.005653   -0.679375
     10          1           0        0.183368    0.314000   -1.664182
     11          6           0        1.989525    0.486036   -0.519146
     12          1           0        2.024706    1.553937   -0.755121
     13          6           0        2.530568    0.316073    0.888601
     14          1           0        3.609330    0.503024    0.876194
     15          1           0        2.069470    1.050730    1.564713
     16          8           0        2.243950   -1.015437    1.329070
     17          1           0        2.785289   -1.225270    2.094786
     18          8           0        2.794059   -0.165461   -1.480718
     19          1           0        2.512363   -1.088815   -1.509483
     20          8           0        0.467880   -1.418567   -0.681602
     21          1           0        0.937193   -1.719789    0.112871
     22          8           0       -0.294378    1.961983    0.438097
     23          1           0       -0.468167    2.277534    1.333272
     24          1           0       -2.066017    1.978701   -0.511192
 ---------------------------------------------------------------------

 SCF Done:  E(RM06L) =  -687.220151201     A.U. after   18 cycles

 The electronic state is 1-A.
 Alpha  occ. eigenvalues --  -19.02683 -19.01857 -19.00311 -18.98482 -18.97518
 Alpha  occ. eigenvalues --  -18.88695 -10.15772 -10.14814 -10.12682 -10.11822
 Alpha  occ. eigenvalues --  -10.11789 -10.11493  -1.08417  -1.04556  -1.03804
 Alpha  occ. eigenvalues --   -1.01928  -1.00153  -0.92744  -0.78210  -0.74644
 Alpha  occ. eigenvalues --   -0.69826  -0.63713  -0.57744  -0.57517  -0.54035
 Alpha  occ. eigenvalues --   -0.53209  -0.51377  -0.48043  -0.47745  -0.44817
 Alpha  occ. eigenvalues --   -0.44485  -0.43059  -0.41467  -0.40958  -0.38316
 Alpha  occ. eigenvalues --   -0.36518  -0.36200  -0.35438  -0.33823  -0.33744
 Alpha  occ. eigenvalues --   -0.32105  -0.30408  -0.30230  -0.27631  -0.26647
 Alpha  occ. eigenvalues --   -0.24872  -0.19547  -0.17546
 Alpha virt. eigenvalues --   -0.04906  -0.02730  -0.01163   0.00906   0.01227
 Alpha virt. eigenvalues --    0.02484   0.03189   0.03992   0.04509   0.04795
 Alpha virt. eigenvalues --    0.05966   0.06236   0.06587   0.07730   0.09071

 Mulliken charges:
               1
     1  O   -0.497066
     2  C    0.091973
     3  H    0.137349
     4  O   -0.153518
     5  C   -0.029803
     6  H    0.149470
     7  C   -0.404183
     8  H    0.187272
     9  C    0.080122
    10  H    0.180394
    11  C   -0.242969
    12  H    0.166173
    13  C   -0.121616
    14  H    0.169477
    15  H    0.127933
    16  O   -0.436064
    17  H    0.318709
    18  O   -0.277739
    19  H    0.264509
    20  O   -0.308889
    21  H    0.319464
    22  O   -0.336196
    23  H    0.314562
    24  H    0.300636
 Sum of Mulliken charges =  -0.00000

 Dipole moment (field-independent basis, Debye):
    X=              7.6435    Y=              4.1241    Z=              6.2643  Tot=             10.7085
 Quadrupole moment (field-independent basis, Debye-Ang):
   XX=           -103.2887   YY=            -68.0644   ZZ=            -65.4902
   XY=            -14.2463   XZ=              4.5978   YZ=              0.2570

 Normal termination of Gaussian 16 at Sun Sep  9 22:52:03 2018.
