 Gaussian 16, Revision A.03,
 Gaussian 16:  ES64L-G16RevA.03 25-Dec-2016

 ----------------------------------------------------------------------
 # m06l/6-311+g(d,p) scf=(xqc,maxconventionalcycles=400) scrf=(smd,solv
 ent=1,4-dioxane) temperature=443.15
 ----------------------------------------------------------------------

 -------------------
 Title Card Required
 -------------------
 Symbolic Z-matrix:
 Charge =  0 Multiplicity = 4

                         Standard orientation:
 ---------------------------------------------------------------------
 Center     Atomic      Atomic             Coordinates (Angstroms)
 Number     Number       Type             X           Y           Z
 ---------------------------------------------------------------------
      1         24           0       -0.023286   -0.306927    0.265764
      2         17           0       -0.017393    1.871388   -0.059726
      3         17           0        2.234209   -0.705775   -0.154198
      4         17           0       -2.183942   -0.732304   -0.161272
 ---------------------------------------------------------------------

 SCF Done:  E(UM06L) =  -2425.17446905     A.U. after   23 cycles

 The electronic state is 4-A.
 Alpha  occ. eigenvalues -- -215.33294-101.19333-101.18844-101.18412 -24.74199
 Alpha  occ. eigenvalues --  -20.97006 -20.96869 -20.96379  -9.41193  -9.40729
 Alpha  occ. eigenvalues --   -9.40220  -7.11718  -7.11423  -7.11322  -7.11310
 Alpha  occ. eigenvalues --   -7.10888  -7.10880  -7.10759  -7.10442  -7.10345
 Alpha  occ. eigenvalues --   -3.01258  -1.94577  -1.94197  -1.94101  -0.78353
 Alpha  occ. eigenvalues --   -0.77489  -0.76657  -0.38449  -0.36989  -0.35836
 Alpha  occ. eigenvalues --   -0.34699  -0.33584  -0.32559  -0.31392  -0.30490
 Alpha  occ. eigenvalues --   -0.28436  -0.28222  -0.26594  -0.25996
 Alpha virt. eigenvalues --   -0.23708  -0.19896  -0.04031   0.00245   0.01667
 Alpha virt. eigenvalues --    0.03677   0.03764   0.08000   0.08538   0.08691
 Alpha virt. eigenvalues --    0.08855   0.09031   0.10096   0.11278   0.11810

  Beta  occ. eigenvalues -- -215.33352-101.19412-101.18913-101.18502 -24.67529
  Beta  occ. eigenvalues --  -20.92839 -20.92238 -20.90800  -9.41249  -9.40776
  Beta  occ. eigenvalues --   -9.40283  -7.11912  -7.11541  -7.11515  -7.11332
  Beta  occ. eigenvalues --   -7.10975  -7.10969  -7.10862  -7.10566  -7.10374
  Beta  occ. eigenvalues --   -2.86209  -1.80922  -1.79722  -1.76539  -0.78690
  Beta  occ. eigenvalues --   -0.77854  -0.77141  -0.37204  -0.35505  -0.34222
  Beta  occ. eigenvalues --   -0.33375  -0.32055  -0.31395  -0.30993  -0.30147
  Beta  occ. eigenvalues --   -0.28764
  Beta virt. eigenvalues --   -0.15648  -0.15446  -0.13400  -0.13313  -0.12351
  Beta virt. eigenvalues --   -0.05380  -0.00439   0.02344   0.03795   0.04304
  Beta virt. eigenvalues --    0.08169   0.08567   0.08731   0.08875   0.09203

 Mulliken charges and spin densities:
               1          2
     1  Cr   0.228090   3.294671
     2  Cl  -0.088250  -0.066813
     3  Cl  -0.100312  -0.122613
     4  Cl  -0.039528  -0.105245
 Sum of Mulliken charges =  -0.00000   3.00000

 Dipole moment (field-independent basis, Debye):
    X=             -0.5294    Y=             -1.9402    Z=              1.9777  Tot=              2.8207
 Quadrupole moment (field-independent basis, Debye-Ang):
   XX=            -62.7444   YY=            -55.3172   ZZ=            -51.2057
   XY=              0.4005   XZ=              0.0494   YZ=             -0.9896

 Normal termination of Gaussian 16 at Sun Sep  9 22:51:21 2018.
