 Gaussian 16, Revision A.03,
 Gaussian 16:  ES64L-G16RevA.03 25-Dec-2016

 ----------------------------------------------------------------------
 # m06l/6-311+g(d,p) scf=(xqc,maxconventionalcycles=400) scrf=(smd,solv
 ent=1,4-dioxane) temperature=443.15
 ----------------------------------------------------------------------

 -------------------
 Title Card Required
 -------------------
 Symbolic Z-matrix:
 Charge =  0 Multiplicity = 1

                         Standard orientation:
 ---------------------------------------------------------------------
 Center     Atomic      Atomic             Coordinates (Angstroms)
 Number     Number       Type             X           Y           Z
 ---------------------------------------------------------------------
      1          8           0        3.715765   -1.253037    0.111324
      2          6           0        2.527867   -0.978922   -0.305078
      3          1           0        1.911761   -1.781318   -0.733093
      4          8           0        2.446338    1.180082    0.619658
      5          6           0        1.827894    0.227832   -0.041196
      6          1           0        2.540747   -0.133499   -1.265919
      7          6           0        0.419758    0.505035   -0.498841
      8          1           0        0.173877   -0.142584   -1.350364
      9          6           0       -0.559331    0.224868    0.652811
     10          1           0       -0.267502    0.834036    1.516640
     11          6           0       -2.011804    0.579616    0.301292
     12          1           0       -2.092265    1.666452    0.202647
     13          6           0       -2.483188   -0.026595   -1.007688
     14          1           0       -3.565929    0.114594   -1.090652
     15          1           0       -2.010707    0.487928   -1.857364
     16          8           0       -2.146140   -1.417444   -1.014874
     17          1           0       -2.626512   -1.860581   -1.719135
     18          8           0       -2.841339    0.209504    1.385765
     19          1           0       -2.525037   -0.647251    1.700260
     20          8           0       -0.440818   -1.120860    1.075848
     21          1           0       -0.842251   -1.665357    0.380626
     22          8           0        0.307683    1.886395   -0.818237
     23          1           0        0.655976    2.036142   -1.705761
     24          1           0        1.988754    2.023309    0.438446
 ---------------------------------------------------------------------

 SCF Done:  E(RM06L) =  -687.227032376     A.U. after   18 cycles

 The electronic state is 1-A.
 Alpha  occ. eigenvalues --  -19.03333 -19.01695 -19.00153 -18.98389 -18.97424
 Alpha  occ. eigenvalues --  -18.89593 -10.16057 -10.14637 -10.12635 -10.12139
 Alpha  occ. eigenvalues --  -10.11736 -10.11680  -1.09061  -1.04571  -1.03685
 Alpha  occ. eigenvalues --   -1.01790  -1.00019  -0.93851  -0.78494  -0.74902
 Alpha  occ. eigenvalues --   -0.69926  -0.63498  -0.58260  -0.57507  -0.53961
 Alpha  occ. eigenvalues --   -0.53026  -0.51244  -0.48128  -0.47768  -0.44798
 Alpha  occ. eigenvalues --   -0.44424  -0.42893  -0.41731  -0.41045  -0.38279
 Alpha  occ. eigenvalues --   -0.36715  -0.36428  -0.35999  -0.34453  -0.34260
 Alpha  occ. eigenvalues --   -0.31948  -0.30258  -0.29890  -0.27453  -0.26706
 Alpha  occ. eigenvalues --   -0.24803  -0.20512  -0.18333
 Alpha virt. eigenvalues --   -0.04584  -0.02629  -0.01140   0.00790   0.01186
 Alpha virt. eigenvalues --    0.02535   0.03189   0.03819   0.04630   0.04956
 Alpha virt. eigenvalues --    0.05635   0.06313   0.06644   0.07536   0.09033

 Mulliken charges:
               1
     1  O   -0.480197
     2  C    0.140032
     3  H    0.128379
     4  O   -0.173278
     5  C   -0.058136
     6  H    0.154503
     7  C   -0.442486
     8  H    0.187553
     9  C    0.089252
    10  H    0.171976
    11  C   -0.228719
    12  H    0.163907
    13  C   -0.142884
    14  H    0.167940
    15  H    0.130761
    16  O   -0.430858
    17  H    0.315900
    18  O   -0.280002
    19  H    0.264194
    20  O   -0.292317
    21  H    0.317171
    22  O   -0.312898
    23  H    0.306811
    24  H    0.303397
 Sum of Mulliken charges =  -0.00000

 Dipole moment (field-independent basis, Debye):
    X=             -6.6455    Y=              3.0510    Z=             -6.5367  Tot=              9.8081
 Quadrupole moment (field-independent basis, Debye-Ang):
   XX=           -101.5690   YY=            -68.5772   ZZ=            -65.7908
   XY=             17.8570   XZ=              1.9553   YZ=              0.9382

 Normal termination of Gaussian 16 at Sun Sep  9 22:55:31 2018.
