 Gaussian 16, Revision A.03,
 Gaussian 16:  ES64L-G16RevA.03 25-Dec-2016

 ----------------------------------------------------------------------
 # m06l/6-311+g(d,p) scf=(xqc,maxconventionalcycles=400) scrf=(smd,solv
 ent=1,4-dioxane) temperature=443.15
 ----------------------------------------------------------------------

 -------------------
 Title Card Required
 -------------------
 Symbolic Z-matrix:
 Charge =  0 Multiplicity = 1

                         Standard orientation:
 ---------------------------------------------------------------------
 Center     Atomic      Atomic             Coordinates (Angstroms)
 Number     Number       Type             X           Y           Z
 ---------------------------------------------------------------------
      1          8           0        3.676508   -1.277814    0.088565
      2          6           0        2.496815   -0.980329   -0.329305
      3          1           0        1.873144   -1.759419   -0.784850
      4          8           0        2.472699    1.166308    0.618414
      5          6           0        1.834073    0.245948   -0.065218
      6          1           0        2.504995   -0.092484   -1.278166
      7          6           0        0.414529    0.541119   -0.481823
      8          1           0        0.156193   -0.050734   -1.369079
      9          6           0       -0.541275    0.171981    0.665190
     10          1           0       -0.231290    0.708418    1.569893
     11          6           0       -1.999463    0.554878    0.368537
     12          1           0       -2.080597    1.646072    0.365268
     13          6           0       -2.489758    0.062272   -0.980707
     14          1           0       -3.573269    0.209542   -1.037256
     15          1           0       -2.028422    0.646630   -1.790825
     16          8           0       -2.153748   -1.323135   -1.108349
     17          1           0       -2.649306   -1.708962   -1.835569
     18          8           0       -2.813128    0.093454    1.428678
     19          1           0       -2.501688   -0.791284    1.659032
     20          8           0       -0.415227   -1.204037    0.971042
     21          1           0       -0.839294   -1.688166    0.244936
     22          8           0        0.294582    1.938461   -0.708557
     23          1           0        0.574252    2.142164   -1.608961
     24          1           0        2.012267    2.017105    0.487187
 ---------------------------------------------------------------------

 SCF Done:  E(RM06L) =  -687.228965614     A.U. after   18 cycles

 The electronic state is 1-A.
 Alpha  occ. eigenvalues --  -19.02975 -19.01612 -19.00181 -18.98317 -18.97409
 Alpha  occ. eigenvalues --  -18.89802 -10.15768 -10.14537 -10.12525 -10.12159
 Alpha  occ. eigenvalues --  -10.11707 -10.11687  -1.08843  -1.04519  -1.03675
 Alpha  occ. eigenvalues --   -1.01768  -1.00011  -0.94012  -0.78448  -0.74872
 Alpha  occ. eigenvalues --   -0.69858  -0.63450  -0.58018  -0.57492  -0.53883
 Alpha  occ. eigenvalues --   -0.52968  -0.51247  -0.48103  -0.47723  -0.44807
 Alpha  occ. eigenvalues --   -0.44455  -0.42885  -0.41615  -0.41033  -0.38235
 Alpha  occ. eigenvalues --   -0.36745  -0.36374  -0.35809  -0.34324  -0.33972
 Alpha  occ. eigenvalues --   -0.31931  -0.30198  -0.29903  -0.27459  -0.26592
 Alpha  occ. eigenvalues --   -0.24774  -0.20806  -0.18383
 Alpha virt. eigenvalues --   -0.03820  -0.02611  -0.01083   0.00868   0.01108
 Alpha virt. eigenvalues --    0.02545   0.03100   0.03871   0.04614   0.04856
 Alpha virt. eigenvalues --    0.05764   0.06240   0.06679   0.07607   0.08996

 Mulliken charges:
               1
     1  O   -0.469899
     2  C    0.139485
     3  H    0.128407
     4  O   -0.177463
     5  C   -0.069792
     6  H    0.149156
     7  C   -0.428422
     8  H    0.186772
     9  C    0.085034
    10  H    0.173452
    11  C   -0.225617
    12  H    0.164194
    13  C   -0.136815
    14  H    0.168139
    15  H    0.129805
    16  O   -0.432962
    17  H    0.316626
    18  O   -0.279702
    19  H    0.264319
    20  O   -0.295483
    21  H    0.317217
    22  O   -0.317833
    23  H    0.308143
    24  H    0.303239
 Sum of Mulliken charges =  -0.00000

 Dipole moment (field-independent basis, Debye):
    X=             -6.7391    Y=              3.4287    Z=             -6.5006  Tot=              9.9714
 Quadrupole moment (field-independent basis, Debye-Ang):
   XX=           -100.5591   YY=            -68.7267   ZZ=            -65.6788
   XY=             17.0750   XZ=              2.8835   YZ=              0.6702

 Normal termination of Gaussian 16 at Sun Sep  9 22:48:39 2018.
