 Gaussian 16, Revision A.03,
 Gaussian 16:  ES64L-G16RevA.03 25-Dec-2016

 ----------------------------------------------------------------------
 # m06l/6-311+g(d,p) scf=(xqc,maxconventionalcycles=400) scrf=(smd,solv
 ent=1,4-dioxane) temperature=443.15
 ----------------------------------------------------------------------

 -------------------
 Title Card Required
 -------------------
 Symbolic Z-matrix:
 Charge =  0 Multiplicity = 6

                         Standard orientation:
 ---------------------------------------------------------------------
 Center     Atomic      Atomic             Coordinates (Angstroms)
 Number     Number       Type             X           Y           Z
 ---------------------------------------------------------------------
      1         26           0       -0.015277   -0.000406    0.402060
      2         17           0       -0.899543    1.911073   -0.206732
      3         17           0        2.142947   -0.181904   -0.200587
      4         17           0       -1.220039   -1.728548   -0.207597
 ---------------------------------------------------------------------

 SCF Done:  E(UM06L) =  -2644.40996964     A.U. after   15 cycles

 The electronic state is 6-A.
 Alpha  occ. eigenvalues -- -255.69233-101.19465-101.19463-101.18906 -30.13109
 Alpha  occ. eigenvalues --  -25.92195 -25.91495 -25.91471  -9.41292  -9.41289
 Alpha  occ. eigenvalues --   -9.40694  -7.11915  -7.11911  -7.11638  -7.11634
 Alpha  occ. eigenvalues --   -7.11523  -7.11519  -7.11328  -7.11037  -7.10918
 Alpha  occ. eigenvalues --   -3.69496  -2.44621  -2.43225  -2.43217  -0.79530
 Alpha  occ. eigenvalues --   -0.78940  -0.78263  -0.44954  -0.44950  -0.44663
 Alpha  occ. eigenvalues --   -0.44172  -0.44151  -0.38155  -0.33747  -0.33623
 Alpha  occ. eigenvalues --   -0.32197  -0.30628  -0.30327  -0.30106  -0.28978
 Alpha  occ. eigenvalues --   -0.28865
 Alpha virt. eigenvalues --   -0.06947   0.00186   0.03553   0.03588   0.03702
 Alpha virt. eigenvalues --    0.08243   0.08283   0.08372   0.08856   0.08901
 Alpha virt. eigenvalues --    0.09867   0.10948   0.10955   0.11742   0.12593

  Beta  occ. eigenvalues -- -255.69249-101.19216-101.19214-101.18664 -30.02228
  Beta  occ. eigenvalues --  -25.84199 -25.83778 -25.83769  -9.41105  -9.41102
  Beta  occ. eigenvalues --   -9.40513  -7.11585  -7.11583  -7.11264  -7.11261
  Beta  occ. eigenvalues --   -7.11187  -7.11184  -7.10999  -7.10677  -7.10600
  Beta  occ. eigenvalues --   -3.46521  -2.21434  -2.20838  -2.20804  -0.78133
  Beta  occ. eigenvalues --   -0.77477  -0.76863  -0.37984  -0.35916  -0.35340
  Beta  occ. eigenvalues --   -0.32765  -0.32456  -0.31916  -0.30846  -0.30532
  Beta  occ. eigenvalues --   -0.28814
  Beta virt. eigenvalues --   -0.23577  -0.21573  -0.21513  -0.18758  -0.18662
  Beta virt. eigenvalues --   -0.08796   0.00084   0.03943   0.03953   0.04851
  Beta virt. eigenvalues --    0.08532   0.08582   0.08635   0.09029   0.09057

 Mulliken charges and spin densities:
               1          2
     1  Fe   0.517716   3.965014
     2  Cl  -0.161878   0.349182
     3  Cl  -0.193579   0.337643
     4  Cl  -0.162259   0.348160
 Sum of Mulliken charges =  -0.00000   5.00000

 Dipole moment (field-independent basis, Debye):
    X=             -0.3351    Y=              0.0209    Z=              3.0342  Tot=              3.0527
 Quadrupole moment (field-independent basis, Debye-Ang):
   XX=            -59.0036   YY=            -58.1995   ZZ=            -48.9806
   XY=              0.0501   XZ=              0.0090   YZ=             -0.0094

 Normal termination of Gaussian 16 at Sun Sep  9 22:47:50 2018.
