 Gaussian 16, Revision C.01,
 Gaussian 16:  ES64L-G16RevC.01  3-Jul-2019

 -----------------------------------------------------------------
 # opt freq b3lyp/6-31g(2df,p) scf=(xqc,maxconventionalcycles=400)
 -----------------------------------------------------------------

 ----
 0_34
 ----
 Symbolic Z-matrix:
 Charge =  0 Multiplicity = 1

 SCF Done:  E(RB3LYP) =  -469.582162604     A.U. after   12 cycles
 SCF Done:  E(RB3LYP) =  -469.583930918     A.U. after   10 cycles
 SCF Done:  E(RB3LYP) =  -469.584132256     A.U. after    9 cycles
 SCF Done:  E(RB3LYP) =  -469.584169062     A.U. after    9 cycles
 SCF Done:  E(RB3LYP) =  -469.584173436     A.U. after    8 cycles
 SCF Done:  E(RB3LYP) =  -469.584180517     A.U. after    8 cycles
 SCF Done:  E(RB3LYP) =  -469.584182138     A.U. after    8 cycles
 SCF Done:  E(RB3LYP) =  -469.584182184     A.U. after    6 cycles
 Optimization completed.
    -- Stationary point found.
 Normal termination of Gaussian 16 at Fri Nov 13 17:49:05 2020.

 ----------------------------------------------------------------------
 #N Geom=AllCheck Guess=TCheck SCRF=Check GenChk RB3LYP/6-31G(2df,p) Fr
 eq
 ----------------------------------------------------------------------

 Structure from the checkpoint file:  "/tmp/scratch/5098283/Gau-68796.chk"
 ----
 0_34
 ----
 Charge =  0 Multiplicity = 1

                         Standard orientation:
 ---------------------------------------------------------------------
 Center     Atomic      Atomic             Coordinates (Angstroms)
 Number     Number       Type             X           Y           Z
 ---------------------------------------------------------------------
      1          6           0        5.635265    0.761883   -0.177276
      2          6           0        4.270939    0.691667    0.513564
      3          6           0        3.208127   -0.029288   -0.322925
      4          6           0        1.842349   -0.100957    0.366369
      5          6           0        0.793188   -0.818914   -0.471732
      6          8           0       -0.424962   -0.837502    0.239799
      7          6           0       -1.473827   -1.481211   -0.453428
      8          6           0       -2.737511   -1.419784    0.398869
      9          6           0       -3.227934    0.002645    0.709372
     10          6           0       -3.771926    0.770807   -0.501321
     11          6           0       -4.295804    2.162009   -0.133328
     12          1           0        6.372018    1.281442    0.443390
     13          1           0        5.568898    1.295712   -1.131977
     14          1           0        6.024967   -0.240523   -0.387365
     15          1           0        4.374618    0.182977    1.481033
     16          1           0        3.922090    1.707306    0.742267
     17          1           0        3.105004    0.479804   -1.291606
     18          1           0        3.557998   -1.045687   -0.552360
     19          1           0        1.478879    0.909856    0.589060
     20          1           0        1.932682   -0.618140    1.329525
     21          1           0        0.662288   -0.308905   -1.442712
     22          1           0        1.120951   -1.849564   -0.696111
     23          1           0       -1.207682   -2.532829   -0.656474
     24          1           0       -1.632934   -0.999625   -1.433362
     25          1           0       -3.524877   -1.985991   -0.115878
     26          1           0       -2.534310   -1.945729    1.339096
     27          1           0       -2.403732    0.566594    1.161002
     28          1           0       -4.016229   -0.057965    1.470957
     29          1           0       -2.988770    0.872424   -1.262772
     30          1           0       -4.577145    0.188093   -0.969505
     31          1           0       -4.680448    2.691956   -1.010562
     32          1           0       -3.503861    2.777870    0.307270
     33          1           0       -5.107912    2.097794    0.599706
 ---------------------------------------------------------------------

 SCF Done:  E(RB3LYP) =  -469.584182184     A.U. after    1 cycles

 The electronic state is 1-A.
 Alpha  occ. eigenvalues --  -19.13155 -10.22045 -10.21960 -10.17747 -10.17722
 Alpha  occ. eigenvalues --  -10.17413 -10.17404 -10.17276 -10.17073 -10.16858
 Alpha  occ. eigenvalues --  -10.16721  -1.02591  -0.80264  -0.79085  -0.75457
 Alpha  occ. eigenvalues --   -0.72998  -0.67784  -0.64846  -0.60127  -0.59317
 Alpha  occ. eigenvalues --   -0.57506  -0.55611  -0.48733  -0.48568  -0.46523
 Alpha  occ. eigenvalues --   -0.45385  -0.43251  -0.42850  -0.41835  -0.41154
 Alpha  occ. eigenvalues --   -0.39619  -0.38981  -0.37263  -0.36877  -0.35693
 Alpha  occ. eigenvalues --   -0.34617  -0.33687  -0.33073  -0.32875  -0.32044
 Alpha  occ. eigenvalues --   -0.31960  -0.31134  -0.30843  -0.30135  -0.24785
 Alpha virt. eigenvalues --    0.08328   0.09150   0.10978   0.11515   0.11990
 Alpha virt. eigenvalues --    0.12481   0.13408   0.13946   0.14611   0.15446
 Alpha virt. eigenvalues --    0.16519   0.17115   0.17564   0.17737   0.18083

 Mulliken charges:
               1
     1  C   -0.380071
     2  C   -0.162721
     3  C   -0.161350
     4  C   -0.196757
     5  C   -0.048730
     6  O   -0.244935
     7  C   -0.045178
     8  C   -0.221318
     9  C   -0.153522
    10  C   -0.155200
    11  C   -0.376563
    12  H    0.111130
    13  H    0.112823
    14  H    0.112863
    15  H    0.095473
    16  H    0.095341
    17  H    0.092091
    18  H    0.092267
    19  H    0.102237
    20  H    0.103082
    21  H    0.080352
    22  H    0.080511
    23  H    0.079813
    24  H    0.083367
    25  H    0.089646
    26  H    0.100378
    27  H    0.110613
    28  H    0.085237
    29  H    0.096582
    30  H    0.088860
    31  H    0.107657
    32  H    0.114335
    33  H    0.111688
 Sum of Mulliken charges =   0.00000

 Dipole moment (field-independent basis, Debye):
    X=              0.2877    Y=             -0.3168    Z=             -0.7180  Tot=              0.8358
 Quadrupole moment (field-independent basis, Debye-Ang):
   XX=            -71.1022   YY=            -71.7852   ZZ=            -72.8336
   XY=              0.9981   XZ=              0.6970   YZ=              0.3747

  Exact polarizability:     139.949       0.793     110.236      -0.485       0.348     101.018
 Approx polarizability:     157.755       0.582     153.461      -0.098       0.322     152.931

                      1                      2                      3
                      A                      A                      A
 Frequencies --     20.9624                35.8644                53.8294
 Red. masses --      3.4117                 1.7187                 1.9579
 Frc consts  --      0.0009                 0.0013                 0.0033
 IR Inten    --      0.0065                 0.1464                 0.0229

                      4                      5                      6
                      A                      A                      A
 Frequencies --     62.7512                80.8417               108.0185
 Red. masses --      2.5517                 2.7531                 2.6850
 Frc consts  --      0.0059                 0.0106                 0.0185
 IR Inten    --      0.0205                 0.1432                 2.0058

                      7                      8                      9
                      A                      A                      A
 Frequencies --    118.1378               155.4582               168.2403
 Red. masses --      1.9643                 2.5267                 2.8055
 Frc consts  --      0.0162                 0.0360                 0.0468
 IR Inten    --      0.0097                 0.2078                 2.4512

                     10                     11                     12
                      A                      A                      A
 Frequencies --    197.3328               238.5898               246.5671
 Red. masses --      2.3923                 1.5292                 1.1149
 Frc consts  --      0.0549                 0.0513                 0.0399
 IR Inten    --      0.7316                 0.1559                 0.0027

                     13                     14                     15
                      A                      A                      A
 Frequencies --    255.5507               279.7761               315.8209
 Red. masses --      1.6734                 2.5146                 2.8728
 Frc consts  --      0.0644                 0.1160                 0.1688
 IR Inten    --      0.3883                 0.6695                 0.4795

                     16                     17                     18
                      A                      A                      A
 Frequencies --    367.1297               454.1442               490.3411
 Red. masses --      2.5926                 2.5266                 3.0147
 Frc consts  --      0.2059                 0.3070                 0.4271
 IR Inten    --      0.4429                 1.2191                 1.9971

                     19                     20                     21
                      A                      A                      A
 Frequencies --    540.2183               731.9980               736.3155
 Red. masses --      2.5936                 1.1575                 1.0679
 Frc consts  --      0.4460                 0.3654                 0.3411
 IR Inten    --      1.1747                 4.6780                 3.2579

                     22                     23                     24
                      A                      A                      A
 Frequencies --    773.3160               789.2600               849.6113
 Red. masses --      1.1112                 1.4517                 1.9088
 Frc consts  --      0.3915                 0.5328                 0.8118
 IR Inten    --      0.0812                 1.1225                 0.5187

                     25                     26                     27
                      A                      A                      A
 Frequencies --    861.8640               893.8181               910.1832
 Red. masses --      1.1670                 1.8427                 1.6967
 Frc consts  --      0.5107                 0.8674                 0.8282
 IR Inten    --      0.0434                 0.6730                 4.5263

                     28                     29                     30
                      A                      A                      A
 Frequencies --    922.8972               985.7818              1005.5174
 Red. masses --      1.8967                 1.1409                 2.5109
 Frc consts  --      0.9518                 0.6532                 1.4957
 IR Inten    --      0.8022                 0.4742                 8.9480

                     31                     32                     33
                      A                      A                      A
 Frequencies --   1025.2487              1030.3973              1038.9367
 Red. masses --      1.4643                 2.1490                 2.9260
 Frc consts  --      0.9069                 1.3443                 1.8608
 IR Inten    --      1.6773                 8.6090                 2.5643

                     34                     35                     36
                      A                      A                      A
 Frequencies --   1059.7616              1069.0624              1084.7531
 Red. masses --      2.5298                 2.2505                 2.2236
 Frc consts  --      1.6740                 1.5154                 1.5416
 IR Inten    --      1.0542                 0.4024                14.0038

                     37                     38                     39
                      A                      A                      A
 Frequencies --   1131.4625              1148.5702              1159.5196
 Red. masses --      2.2431                 2.2880                 3.6709
 Frc consts  --      1.6919                 1.7784                 2.9079
 IR Inten    --     19.8403                39.0665               119.7724

                     40                     41                     42
                      A                      A                      A
 Frequencies --   1169.8424              1196.8108              1237.5819
 Red. masses --      3.0302                 1.6878                 1.3199
 Frc consts  --      2.4433                 1.4244                 1.1911
 IR Inten    --     73.7837                 1.6665                 0.2525

                     43                     44                     45
                      A                      A                      A
 Frequencies --   1247.9534              1258.8119              1272.6897
 Red. masses --      1.3455                 1.2991                 1.3295
 Frc consts  --      1.2346                 1.2129                 1.2688
 IR Inten    --      5.0897                 3.1653                 5.2432

                     46                     47                     48
                      A                      A                      A
 Frequencies --   1297.5748              1303.1997              1316.4646
 Red. masses --      1.1918                 1.2148                 1.0872
 Frc consts  --      1.1823                 1.2155                 1.1102
 IR Inten    --      0.5760                 2.8727                 0.0596

                     49                     50                     51
                      A                      A                      A
 Frequencies --   1328.9065              1332.9555              1339.4311
 Red. masses --      1.1912                 1.0849                 1.1519
 Frc consts  --      1.2394                 1.1357                 1.2176
 IR Inten    --      3.4494                 0.1832                 2.7040

                     52                     53                     54
                      A                      A                      A
 Frequencies --   1352.1326              1386.9919              1391.6700
 Red. masses --      1.3623                 1.3720                 1.4930
 Frc consts  --      1.4674                 1.5551                 1.7037
 IR Inten    --      1.2803                30.9339                14.9843

                     55                     56                     57
                      A                      A                      A
 Frequencies --   1399.7313              1404.9089              1412.4091
 Red. masses --      1.5441                 1.4546                 1.2318
 Frc consts  --      1.7824                 1.6916                 1.4478
 IR Inten    --      3.8268                15.3605                 1.8438

                     58                     59                     60
                      A                      A                      A
 Frequencies --   1413.9143              1451.6581              1473.2385
 Red. masses --      1.2609                 1.4893                 1.0875
 Frc consts  --      1.4852                 1.8490                 1.3907
 IR Inten    --      4.0818                 3.2852                 2.9236

                     61                     62                     63
                      A                      A                      A
 Frequencies --   1484.2129              1484.9986              1489.1986
 Red. masses --      1.0731                 1.0678                 1.0735
 Frc consts  --      1.3928                 1.3874                 1.4027
 IR Inten    --      1.7638                 0.3013                 0.4352

                     64                     65                     66
                      A                      A                      A
 Frequencies --   1493.7626              1499.6750              1499.8450
 Red. masses --      1.0723                 1.0451                 1.0403
 Frc consts  --      1.4097                 1.3848                 1.3788
 IR Inten    --      2.7202                 2.3244                 4.9162

                     67                     68                     69
                      A                      A                      A
 Frequencies --   1500.1959              1509.9315              1510.5486
 Red. masses --      1.0695                 1.0818                 1.0826
 Frc consts  --      1.4181                 1.4531                 1.4554
 IR Inten    --      3.0332                 2.0767                 6.4036

                     70                     71                     72
                      A                      A                      A
 Frequencies --   1516.4993              1536.6031              2936.6015
 Red. masses --      1.0899                 1.0949                 1.0537
 Frc consts  --      1.4768                 1.5232                 5.3538
 IR Inten    --      7.6692                 1.7905                21.8137

                     73                     74                     75
                      A                      A                      A
 Frequencies --   2953.3609              2962.8872              2972.5749
 Red. masses --      1.0550                 1.1044                 1.1038
 Frc consts  --      5.4216                 5.7121                 5.7464
 IR Inten    --     72.0325                60.1192                45.2499

                     76                     77                     78
                      A                      A                      A
 Frequencies --   3001.4363              3011.2141              3015.5131
 Red. masses --      1.0577                 1.0612                 1.0592
 Frc consts  --      5.6140                 5.6691                 5.6749
 IR Inten    --     11.7619                12.7435                21.0531

                     79                     80                     81
                      A                      A                      A
 Frequencies --   3019.1436              3025.4570              3025.6943
 Red. masses --      1.0665                 1.0545                 1.0994
 Frc consts  --      5.7279                 5.6870                 5.9302
 IR Inten    --     34.2347                42.3905                 2.2558

                     82                     83                     84
                      A                      A                      A
 Frequencies --   3027.9506              3028.3752              3029.7233
 Red. masses --      1.0377                 1.0444                 1.0569
 Frc consts  --      5.6058                 5.6432                 5.7162
 IR Inten    --     28.8622                17.6460                65.7426

                     85                     86                     87
                      A                      A                      A
 Frequencies --   3044.4909              3049.7150              3064.3643
 Red. masses --      1.0925                 1.1034                 1.1001
 Frc consts  --      5.9663                 6.0465                 6.0863
 IR Inten    --     14.6331                 9.6121                33.3914

                     88                     89                     90
                      A                      A                      A
 Frequencies --   3073.6886              3075.2662              3094.3775
 Red. masses --      1.1049                 1.1002                 1.1021
 Frc consts  --      6.1502                 6.1306                 6.2176
 IR Inten    --     54.1389                33.0419                60.9344

                     91                     92                     93
                      A                      A                      A
 Frequencies --   3095.0933              3098.6658              3100.3449
 Red. masses --      1.1021                 1.1010                 1.1009
 Frc consts  --      6.2203                 6.2287                 6.2346
 IR Inten    --     68.9943                39.8775                37.9604

 - Thermochemistry -
 -------------------
 Temperature   298.150 Kelvin.  Pressure   1.00000 Atm.
 Atom     1 has atomic number  6 and mass  12.00000

 Molecular mass:   158.16707 amu.
 Principal axes and moments of inertia in atomic units:
                           1         2         3
     Eigenvalues --   859.857716300.271836827.10620
           X            1.00000  -0.00254  -0.00030
           Y            0.00255   0.99995   0.01013
           Z            0.00027  -0.01013   0.99995
 This molecule is an asymmetric top.
 Rotational symmetry number  1.
 Warning -- assumption of classical behavior for rotation
           may cause significant error
 Rotational temperatures (Kelvin)      0.10073     0.01375     0.01269
 Rotational constants (GHZ):           2.09888     0.28645     0.26435
 Zero-point vibrational energy     805195.3 (Joules/Mol)
                                  192.44629 (Kcal/Mol)
 Warning -- explicit consideration of  19 degrees of freedom as
           vibrations may cause significant error
 Vibrational temperatures:     30.16    51.60    77.45    90.28   116.31
          (Kelvin)            155.41   169.97   223.67   242.06   283.92
                              343.28   354.76   367.68   402.54   454.40
                              528.22   653.41   705.49   777.25  1053.18
                             1059.39  1112.63  1135.57  1222.40  1240.03
                             1286.00  1309.55  1327.84  1418.32  1446.72
                             1475.10  1482.51  1494.80  1524.76  1538.14
                             1560.72  1627.92  1652.54  1668.29  1683.14
                             1721.94  1780.60  1795.53  1811.15  1831.12
                             1866.92  1875.01  1894.10  1912.00  1917.83
                             1927.14  1945.42  1995.57  2002.30  2013.90
                             2021.35  2032.14  2034.31  2088.61  2119.66
                             2135.45  2136.58  2142.62  2149.19  2157.70
                             2157.94  2158.45  2172.45  2173.34  2181.90
                             2210.83  4225.11  4249.23  4262.93  4276.87
                             4318.40  4332.47  4338.65  4343.87  4352.96
                             4353.30  4356.55  4357.16  4359.10  4380.34
                             4387.86  4408.94  4422.35  4424.62  4452.12
                             4453.15  4458.29  4460.70

 Zero-point correction=                           0.306683 (Hartree/Particle)
 Thermal correction to Energy=                    0.321507
 Thermal correction to Enthalpy=                  0.322451
 Thermal correction to Gibbs Free Energy=         0.262548
 Sum of electronic and zero-point Energies=           -469.277500
 Sum of electronic and thermal Energies=              -469.262676
 Sum of electronic and thermal Enthalpies=            -469.261731
 Sum of electronic and thermal Free Energies=         -469.321634

                     E (Thermal)             CV                S
                      KCal/Mol        Cal/Mol-Kelvin    Cal/Mol-Kelvin
 Total                  201.748             51.951            126.075
 Electronic               0.000              0.000              0.000
 Translational            0.889              2.981             41.085
 Rotational               0.889              2.981             31.981
 Vibrational            199.971             45.989             53.009
 Vibration     1          0.593              1.986              6.541
 Vibration     2          0.594              1.982              5.475
 Vibration     3          0.596              1.976              4.672
 Vibration     4          0.597              1.972              4.369
 Vibration     5          0.600              1.962              3.870
 Vibration     6          0.606              1.943              3.304
 Vibration     7          0.608              1.934              3.131
 Vibration     8          0.620              1.897              2.604
 Vibration     9          0.625              1.882              2.455
 Vibration    10          0.637              1.844              2.158
 Vibration    11          0.657              1.781              1.813
 Vibration    12          0.661              1.768              1.755
 Vibration    13          0.666              1.753              1.692
 Vibration    14          0.680              1.711              1.535
 Vibration    15          0.703              1.643              1.332
 Vibration    16          0.740              1.540              1.092
 Vibration    17          0.813              1.352              0.783
 Vibration    18          0.846              1.271              0.683
 Vibration    19          0.895              1.161              0.565

 Optimization completed.
    -- Stationary point found.
 Normal termination of Gaussian 16 at Fri Nov 13 17:54:09 2020.
