 Gaussian 16, Revision C.01,
 Gaussian 16:  ES64L-G16RevC.01  3-Jul-2019

 -----------------------------
 # opt freq b3lyp/6-31g(2df,p)
 -----------------------------

 -------------------
 Title Card Required
 -------------------
 Symbolic Z-matrix:
 Charge =  0 Multiplicity = 2

 SCF Done:  E(UB3LYP) =  -75.7334566150     A.U. after   11 cycles
 SCF Done:  E(UB3LYP) =  -75.7336917807     A.U. after    8 cycles
 SCF Done:  E(UB3LYP) =  -75.7336928164     A.U. after    7 cycles
 Optimization completed.
    -- Stationary point found.
 Normal termination of Gaussian 16 at Wed Oct  7 21:22:17 2020.

 ----------------------------------------------------------------------
 #N Geom=AllCheck Guess=TCheck SCRF=Check GenChk UB3LYP/6-31G(2df,p) Fr
 eq
 ----------------------------------------------------------------------

 Structure from the checkpoint file:  "/tmp/scratch/4715369/Gau-243512.chk"
 -------------------
 Title Card Required
 -------------------
 Charge =  0 Multiplicity = 2

                         Standard orientation:
 ---------------------------------------------------------------------
 Center     Atomic      Atomic             Coordinates (Angstroms)
 Number     Number       Type             X           Y           Z
 ---------------------------------------------------------------------
      1          8           0       -0.000000    0.000000    0.108459
      2          1           0        0.000000   -0.000000   -0.867675
 ---------------------------------------------------------------------

 SCF Done:  E(UB3LYP) =  -75.7336928164     A.U. after    1 cycles

 Unable to determine electronic state:  partially filled degenerate orbitals.
 Alpha  occ. eigenvalues --  -19.20246  -1.00563  -0.46452  -0.40313  -0.32840
 Alpha virt. eigenvalues --    0.07490   0.61807   0.79836   0.82751   0.84247
 Alpha virt. eigenvalues --    0.88269   0.91551   0.92598   0.92746   0.98009
 Alpha virt. eigenvalues --    1.87720   2.46217   2.47712   2.83790   4.03059

  Beta  occ. eigenvalues --  -19.17807  -0.93496  -0.43913  -0.30287
  Beta virt. eigenvalues --   -0.15181   0.08356   0.62854   0.85049   0.85393
  Beta virt. eigenvalues --    0.87436   0.92199   0.94131   0.96105   0.96527
  Beta virt. eigenvalues --    0.99867   1.88471   2.47084   2.47344   2.84781

 Mulliken charges and spin densities:
               1          2
     1  O   -0.321872   1.026067
     2  H    0.321872  -0.026067
 Sum of Mulliken charges =   0.00000   1.00000

 Dipole moment (field-independent basis, Debye):
    X=              0.0000    Y=             -0.0000    Z=             -1.6162  Tot=              1.6162
 Quadrupole moment (field-independent basis, Debye-Ang):
   XX=             -5.2773   YY=             -6.3801   ZZ=             -4.4204
   XY=             -0.0000   XZ=              0.0000   YZ=             -0.0000

  Exact polarizability:       3.934       0.000       3.819      -0.000      -0.000       6.834
 Approx polarizability:       4.865      -0.000       4.320      -0.000       0.000       8.853

                      1
                     SG
 Frequencies --   3694.2292
 Red. masses --      1.0671
 Frc consts  --      8.5802
 IR Inten    --      4.8972

 - Thermochemistry -
 -------------------
 Temperature   298.150 Kelvin.  Pressure   1.00000 Atm.
 Atom     1 has atomic number  8 and mass  15.99491

 Molecular mass:    17.00274 amu.
 Principal axes and moments of inertia in atomic units:
                           1         2         3
     Eigenvalues --     0.00000   3.22600   3.22600
           X           -0.00000  -0.61697   0.78699
           Y            0.00000   0.78699   0.61697
           Z            1.00000  -0.00000   0.00000
 This molecule is a prolate symmetric top.
 Rotational symmetry number  1.
 Rotational temperature (Kelvin)     26.84868
 Rotational constant (GHZ):         559.435786
 Zero-point vibrational energy      22096.4 (Joules/Mol)
                                    5.28117 (Kcal/Mol)
 Vibrational temperatures:   5315.17
          (Kelvin)

 Zero-point correction=                           0.008416 (Hartree/Particle)
 Thermal correction to Energy=                    0.010777
 Thermal correction to Enthalpy=                  0.011721
 Thermal correction to Gibbs Free Energy=        -0.008513
 Sum of electronic and zero-point Energies=            -75.725277
 Sum of electronic and thermal Energies=               -75.722916
 Sum of electronic and thermal Enthalpies=             -75.721972
 Sum of electronic and thermal Free Energies=          -75.742206

                     E (Thermal)             CV                S
                      KCal/Mol        Cal/Mol-Kelvin    Cal/Mol-Kelvin
 Total                    6.762              4.968             42.585
 Electronic               0.000              0.000              1.377
 Translational            0.889              2.981             34.437
 Rotational               0.592              1.987              6.771
 Vibrational              5.281              0.000              0.000

 Optimization completed.
    -- Stationary point found.
 Normal termination of Gaussian 16 at Wed Oct  7 21:22:20 2020.
